                               Psi4 1.9 release

  ==> Input File <==

--------------------------------------------------------------------------
molecule h2o {
0 1
O -1.551007 -0.114520 0.000000
H -1.934259 0.762503 0.000000
H -0.599677 0.040712 0.000000
--
0 1
O 1.350625 0.111469 0.000000
H 1.680398 -0.373741 -0.758561
H 1.680398 -0.373741 0.758561

units angstrom
}
set {
basis aug-cc-pvtz
guess sad
scf_type df
freeze_core true
}
energy('mp2',bsse_type='cp')
--------------------------------------------------------------------------

                               Psi4 1.9 release
    Molecular point group: cs
  Charge       = 0
  Multiplicity = 1
  Basis Set: AUG-CC-PVTZ
    Blend: AUG-CC-PVTZ
  Basis Set: (AUG-CC-PVTZ AUX)
    Blend: AUG-CC-PVTZ-JKFIT
  @DF-RHF Final Energy:   -76.06056634361389
    Total Energy =                        -76.0605663436138855
 Dipole X            :        -27.5755965           28.0137395            0.4381430
 Dipole Y            :         -0.9129895            0.2687651           -0.6442244
 Dipole Z            :          0.0000000            0.0000000            0.0000000
 Magnitude           :                                                    0.7790984
  Basis Set: (AUG-CC-PVTZ AUX)
    Blend: AUG-CC-PVTZ-RI
	 Reference Energy          =     -76.0605663436138855 [Eh]
	 Singles Energy            =      -0.0000000000000000 [Eh]
	 Same-Spin Energy          =      -0.0652100014086621 [Eh]
	 Opposite-Spin Energy      =      -0.2035921243079547 [Eh]
	 Correlation Energy        =      -0.2688021257166168 [Eh]
	 Total Energy              =     -76.3293684693305039 [Eh]
	 SCS Total Energy          =     -76.3266135599196502 [Eh]
                               Psi4 1.9 release
    Molecular point group: cs
  Multiplicity = 1
  Basis Set: AUG-CC-PVTZ
    Blend: AUG-CC-PVTZ
  Basis Set: (AUG-CC-PVTZ AUX)
    Blend: AUG-CC-PVTZ-JKFIT
  @DF-RHF Final Energy:   -76.06038212046542
    Total Energy =                        -76.0603821204654196
  Basis Set: (AUG-CC-PVTZ AUX)
	 Singles Energy            =      -0.0000000000000000 [Eh]
	 Same-Spin Energy          =      -0.0652366397759128 [Eh]
	 Opposite-Spin Energy      =      -0.2036094414145480 [Eh]
	 Correlation Energy        =      -0.2688460811904608 [Eh]
	 Total Energy              =     -76.3292282016558801 [Eh]
	 SCS Total Energy          =     -76.3264589967548517 [Eh]
                               Psi4 1.9 release
    Molecular point group: cs

    Geometry (in Bohr), charge = 0, multiplicity = 1:

       Center              X                  Y                   Z               Mass
    ------------   -----------------  -----------------  -----------------  -----------------
         O           -2.806551975700    -0.216798005912     0.000000000000    15.994914619570
         H           -3.530793292734     1.440535269815     0.000000000000     1.007825032230
         H           -1.008798820768     0.076547959995     0.000000000000     1.007825032230
         O            2.676737821164     0.210259311454     0.000000000000    15.994914619570
         H            3.299918474735    -0.706654701880    -1.433472539453     1.007825032230
         H            3.299918474735    -0.706654701880     1.433472539453     1.007825032230

  Charge       = 0
  Multiplicity = 1
  Basis Set: AUG-CC-PVTZ
    Blend: AUG-CC-PVTZ
  Basis Set: (AUG-CC-PVTZ AUX)
    Blend: AUG-CC-PVTZ-JKFIT

    Orbital Energies [Eh]
    ---------------------

    Doubly Occupied:

       1Ap   -20.592141     2Ap   -20.536271     3Ap    -1.380460
       4Ap    -1.323539     1App   -0.742552     5Ap    -0.694978
       6Ap    -0.614606     7Ap    -0.560921     8Ap    -0.530900
       2App   -0.482055

  @DF-RHF Final Energy:  -152.12660395218248

   => Energetics <=

    Nuclear Repulsion Energy =             36.6628479968634053
    One-Electron Energy =                -282.6620586263286441
    Two-Electron Energy =                  93.8726066772827608
    Total Energy =                       -152.1266039521824780
 Dipole X            :          0.0115918            1.0217316            1.0333234
 Dipole Y            :         -0.0184895            0.0514643            0.0329748
 Dipole Z            :          0.0000000            0.0000000            0.0000000
 Magnitude           :                                                    1.0338494
  Basis Set: (AUG-CC-PVTZ AUX)
    Blend: AUG-CC-PVTZ-RI
	 Reference Energy          =    -152.1266039521824780 [Eh]
	 Singles Energy            =      -0.0000000000000000 [Eh]
	 Same-Spin Energy          =      -0.1317333530609387 [Eh]
	 Opposite-Spin Energy      =      -0.4077296984470992 [Eh]
	 Correlation Energy        =      -0.5394630515080379 [Eh]
	 Total Energy              =    -152.6660670036905287 [Eh]

	 ================> DF-SCS-MP2 Energies <==================
	-----------------------------------------------------------
	 SCS Same-Spin Scale       =       0.3333333333333333 [-]
	 SCS Opposite-Spin Scale   =       1.2000000000000000 [-]
	 SCS Same-Spin Energy      =      -0.0439111176869796 [Eh]
	 SCS Opposite-Spin Energy  =      -0.4892756381365190 [Eh]
	 SCS Correlation Energy    =      -0.5331867558234985 [Eh]
	 SCS Total Energy          =    -152.6597907080059713 [Eh]
	-----------------------------------------------------------

*** Psi4 exiting successfully. Buy a developer a beer!
